ITEM: TIMESTEP
0
ITEM: NUMBER OF ATOMS
9
ITEM: BOX BOUNDS pp pp pp
26.16 56.2661
28.47 58.5761
26.03 56.1361
ITEM: ATOMS mol q element id x type z y 
1 0.145 C 1 27.11 1 28.03 29.46 
1 0.06 C 2 27.09 2 27.57 28.47 
1 0.06 C 3 26.16 2 28.55 29.54 
1 -0.683 C 4 28.04 3 29.07 29.57 
1 0.418 C 5 28.83 4 28.57 29.46 
1 -0.18 C 6 27.32 1 26.87 30.48 
1 0.06 C 7 28.33 2 26.49 30.64 
1 0.06 C 8 27 2 27.23 31.45 
1 0.06 C 9 26.63 2 26.03 30.35 
ITEM: TIMESTEP
1
ITEM: NUMBER OF ATOMS
9
ITEM: BOX BOUNDS pp pp pp
26.16 56.2661
28.47 58.5761
26.03 56.1361
ITEM: ATOMS mol q element id x type z y 
1 0.145 C 1 27.11 1 28.03 29.46 
1 0.06 C 2 27.09 2 27.57 28.47 
1 0.06 C 3 26.16 2 28.55 29.54 
1 -0.683 C 4 28.04 3 29.07 29.57 
1 0.418 C 5 28.83 4 28.57 29.46 
1 -0.18 C 6 27.32 1 26.87 30.48 
1 0.06 C 7 28.33 2 26.49 30.64 
1 0.06 C 8 27 2 27.23 31.45 
1 0.06 C 9 26.63 2 26.03 30.35 
ITEM: TIMESTEP
2
ITEM: NUMBER OF ATOMS
9
ITEM: BOX BOUNDS pp pp pp
26.16 56.2661
28.47 58.5761
26.03 56.1361
ITEM: ATOMS mol q element id x type z y 
1 0.145 C 1 27.11 1 28.03 29.46 
1 0.06 C 2 27.09 2 27.57 28.47 
1 0.06 C 3 26.16 2 28.55 29.54 
1 -0.683 C 4 28.04 3 29.07 29.57 
1 0.418 C 5 28.83 4 28.57 29.46 
1 -0.18 C 6 27.32 1 26.87 30.48 
1 0.06 C 7 28.33 2 26.49 30.64 
1 0.06 C 8 27 2 27.23 31.45 
1 0.06 C 9 26.63 2 26.03 30.35 
ITEM: TIMESTEP
3
ITEM: NUMBER OF ATOMS
9
ITEM: BOX BOUNDS pp pp pp
26.16 56.2661
28.47 58.5761
26.03 56.1361
ITEM: ATOMS mol q element id x type z y 
1 0.145 C 1 27.11 1 28.03 29.46 
1 0.06 C 2 27.09 2 27.57 28.47 
1 0.06 C 3 26.16 2 28.55 29.54 
1 -0.683 C 4 28.04 3 29.07 29.57 
1 0.418 C 5 28.83 4 28.57 29.46 
1 -0.18 C 6 27.32 1 26.87 30.48 
1 0.06 C 7 28.33 2 26.49 30.64 
1 0.06 C 8 27 2 27.23 31.45 
1 0.06 C 9 26.63 2 26.03 30.35 
ITEM: TIMESTEP
4
ITEM: NUMBER OF ATOMS
9
ITEM: BOX BOUNDS pp pp pp
26.16 56.2661
28.47 58.5761
26.03 56.1361
ITEM: ATOMS mol q element id x type z y 
1 0.145 C 1 27.11 1 28.03 29.46 
1 0.06 C 2 27.09 2 27.57 28.47 
1 0.06 C 3 26.16 2 28.55 29.54 
1 -0.683 C 4 28.04 3 29.07 29.57 
1 0.418 C 5 28.83 4 28.57 29.46 
1 -0.18 C 6 27.32 1 26.87 30.48 
1 0.06 C 7 28.33 2 26.49 30.64 
1 0.06 C 8 27 2 27.23 31.45 
1 0.06 C 9 26.63 2 26.03 30.35 
ITEM: TIMESTEP
5
ITEM: NUMBER OF ATOMS
9
ITEM: BOX BOUNDS pp pp pp
26.16 56.2661
28.47 58.5761
26.03 56.1361
ITEM: ATOMS mol q element id x type z y 
1 0.145 C 1 27.11 1 28.03 29.46 
1 0.06 C 2 27.09 2 27.57 28.47 
1 0.06 C 3 26.16 2 28.55 29.54 
1 -0.683 C 4 28.04 3 29.07 29.57 
1 0.418 C 5 28.83 4 28.57 29.46 
1 -0.18 C 6 27.32 1 26.87 30.48 
1 0.06 C 7 28.33 2 26.49 30.64 
1 0.06 C 8 27 2 27.23 31.45 
1 0.06 C 9 26.63 2 26.03 30.35 
