ITEM: TIMESTEP
0
ITEM: NUMBER OF ATOMS
22
ITEM: BOX BOUNDS pp pp pp
2.795 12.795
6 16
3.8 13.8
ITEM: ATOMS id type xu yu zu
 1 1 4.29 13.1 8.59
 2 2 5.2 13.6 8.8
 3 3 4.89 14.3 9.6
 4 4 5.6 14.2 7.89
 5 5 6.1 12.5 9.4
 6 6 6.4 12.5 10.6
 7 7 6.59 11.6 8.49
 8 8 6.5 11.6 7.5
 9 9 7.29 10.4 9.09
 10 10 7.89 10.69 10
 11 11 6.2 9.5 9.6
 12 12 5.7 9.09 8.8
 13 13 6.59 8.7 10.2
 14 14 5.39 10 10.2
 15 5 8.4 9.79 8.2
 16 6 8.4 9.89 7
 17 7 9.3 9 8.8
 18 8 9.09 9 9.79
 19 2 10.5 8.4 8.3
 20 1 10.69 7.7 9.09
 21 3 10.4 7.99 7.29
 22 4 11.3 9.09 8.3
ITEM: TIMESTEP
1
ITEM: NUMBER OF ATOMS
22
ITEM: BOX BOUNDS pp pp pp
2.795 12.795
6.1 16.1
3.75 13.75
ITEM: ATOMS id type xu yu zu
 1 1 3.99 12.7 8.8
 2 2 5 13.19 9.19
 3 3 4.8 14 9.89
 4 4 5.5 13.6 8.4
 5 5 5.9 11.99 9.79
 6 6 6.1 11.89 11
 7 7 6.59 11.3 8.9
 8 8 6.69 11.6 7.99
 9 9 7.5 10.2 9.3
 10 10 8.2 10.5 10.1
 11 11 6.59 9.09 9.69
 12 12 5.7 9 9.09
 13 13 7.19 8.2 9.69
 14 14 6.2 9.19 10.69
 15 5 8.4 9.89 8.1
 16 6 7.8 9.79 7
 17 7 9.69 9.89 8.2
 18 8 10 9.79 9.19
 19 2 10.6 9.89 7.1
 20 1 11.6 9.5 7.4
 21 3 10.4 9.09 6.5
 22 4 10.69 10.79 6.59
ITEM: TIMESTEP
2
ITEM: NUMBER OF ATOMS
22
ITEM: BOX BOUNDS pp pp pp
2.9 12.9
6.1 16.1
3.845 13.845
ITEM: ATOMS id type xu yu zu
 1 1 5.3 14.1 8.9
 2 2 5.7 13.6 7.99
 3 3 6.2 14 7.19
 4 4 4.8 13.1 7.7
 5 5 6.59 12.5 8.59
 6 6 7.7 12.7 8.8
 7 7 5.99 11.3 9
 8 8 5 11.2 8.8
 9 9 6.8 10.2 9.6
 10 10 7.29 10.5 10.5
 11 11 5.9 8.9 9.69
 12 12 5.8 8.49 8.7
 13 13 6.4 8.3 10.4
 14 14 4.89 9.19 10
 15 5 7.99 9.89 8.8
 16 6 8.1 10.1 7.6
 17 7 9 9.19 9.4
 18 8 8.9 8.9 10.4
 19 2 10.4 8.8 8.9
 20 1 11 9.69 9.09
 21 3 10.79 8.1 9.6
 22 4 10.4 8.59 7.8
ITEM: TIMESTEP
3
ITEM: NUMBER OF ATOMS
22
ITEM: BOX BOUNDS pp pp pp
2.845 12.845
6.1 16.1
3.9 13.9
ITEM: ATOMS id type xu yu zu
 1 1 3.99 12.7 8.3
 2 2 4.89 12.8 7.7
 3 3 5.2 13.8 7.5
 4 4 4.89 12.2 6.8
 5 5 5.99 12.2 8.7
 6 6 6.8 13 9.09
 7 7 5.99 10.9 8.9
 8 8 5.3 10.3 8.4
 9 9 7.1 10.2 9.69
 10 10 7.7 10.79 10.4
 11 11 6.5 9 10.4
 12 12 6.1 8.4 9.6
 13 13 7.29 8.4 11
 14 14 5.7 9.4 11
 15 5 8.3 9.79 8.8
 16 6 8.1 9.5 7.6
 17 7 9.6 9.89 9.09
 18 8 9.79 10.5 9.89
 19 2 10.69 9.69 8.2
 20 1 11.7 10 8.59
 21 3 10.69 8.8 7.7
 22 4 10.6 10.4 7.4
ITEM: TIMESTEP
4
ITEM: NUMBER OF ATOMS
22
ITEM: BOX BOUNDS pp pp pp
2.55 12.55
5.1 15.1
3.55 13.55
ITEM: ATOMS id type xu yu zu
 1 1 3.5 11.2 7.8
 2 2 4.5 11.6 7.7
 3 3 4.4 12.7 7.99
 4 4 4.89 11.4 6.8
 5 5 5.39 11.1 8.8
 6 6 5.6 11.8 9.79
 7 7 6.1 10 8.59
 8 8 5.99 9.4 7.8
 9 9 7.4 9.6 9.09
 10 10 7.19 9.4 10.2
 11 11 7.7 8.3 8.49
 12 12 7.7 8.3 7.4
 13 13 8.7 7.89 8.8
 14 14 7 7.5 8.9
 15 5 8.49 10.69 8.8
 16 6 8.4 11.4 7.89
 17 7 9.69 10.69 9.5
 18 8 9.79 10.1 10.3
 19 2 10.9 11.5 9.19
 20 1 11.6 10.9 8.7
 21 3 10.5 12.09 8.49
 22 4 11.1 12.09 10.1
ITEM: TIMESTEP
5
ITEM: NUMBER OF ATOMS
22
ITEM: BOX BOUNDS pp pp pp
2.495 12.495
5.495 15.495
3.795 13.795
ITEM: ATOMS id type xu yu zu
 1 1 3.59 11.99 9.3
 2 2 4.5 12.4 8.8
 3 3 4.59 13.39 9.09
 4 4 4.2 12.3 7.7
 5 5 5.7 11.7 9.09
 6 6 6.59 12.09 9.89
 7 7 5.9 10.4 8.59
 8 8 5.3 10.1 7.89
 9 9 7.19 9.6 9
 10 10 7.19 9.5 10.1
 11 11 6.9 8.2 8.4
 12 12 6.5 8.3 7.4
 13 13 7.8 7.6 8.49
 14 14 6.2 7.7 9
 15 5 8.49 10.2 8.49
 16 6 8.59 10.69 7.29
 17 7 9.5 10.4 9.4
 18 8 9.19 10.2 10.3
 19 2 10.79 11.1 9.09
 20 1 11.1 11.7 9.89
 21 3 11.4 10.3 8.8
 22 4 10.69 11.8 8.2
ITEM: TIMESTEP
6
ITEM: NUMBER OF ATOMS
22
ITEM: BOX BOUNDS pp pp pp
2.445 12.445
5.495 15.495
3.495 13.495
ITEM: ATOMS id type xu yu zu
 1 1 3.59 11.89 9.09
 2 2 4.5 12.5 8.9
 3 3 4.4 13.29 9.69
 4 4 4.5 12.7 7.89
 5 5 5.8 11.8 9.3
 6 6 6.4 12.2 10.3
 7 7 5.99 10.69 8.49
 8 8 5.3 10.6 7.89
 9 9 7 9.69 8.7
 10 10 7 9.3 9.69
 11 11 6.8 8.49 7.7
 12 12 6.9 9 6.69
 13 13 7.5 7.7 7.89
 14 14 5.7 8.2 7.8
 15 5 8.49 10.3 8.49
 16 6 8.7 11.2 7.7
 17 7 9.4 9.69 9.19
 18 8 9.19 9 9.89
 19 2 10.79 10 9.09
 20 1 11 11 8.8
 21 3 11.2 9.79 10.1
 22 4 11.3 9.3 8.49
ITEM: TIMESTEP
7
ITEM: NUMBER OF ATOMS
22
ITEM: BOX BOUNDS pp pp pp
2.45 12.45
5.745 15.745
3.395 13.395
ITEM: ATOMS id type xu yu zu
 1 1 3.5 11.99 9.6
 2 2 4.5 12.3 9.19
 3 3 4.59 13.29 9.69
 4 4 4.5 12.7 8.2
 5 5 5.7 11.4 9.4
 6 6 6.3 11.3 10.5
 7 7 5.9 10.6 8.4
 8 8 5.2 10.79 7.7
 9 9 7.1 9.79 8.2
 10 10 7 9 9
 11 11 7.29 9.09 7
 12 12 7.19 9.69 6.1
 13 13 8.2 8.49 6.9
 14 14 6.5 8.2 6.8
 15 5 8.49 10.5 8.4
 16 6 8.59 11.7 8.1
 17 7 9.5 9.69 8.9
 18 8 9.3 8.7 9
 19 2 10.69 10.2 9.6
 20 1 11.4 9.5 9.4
 21 3 11 11.2 9.3
 22 4 10.5 10.3 10.69
ITEM: TIMESTEP
8
ITEM: NUMBER OF ATOMS
22
ITEM: BOX BOUNDS pp pp pp
2.7 12.7
5.295 15.295
3.95 13.95
ITEM: ATOMS id type xu yu zu
 1 1 4.2 12.2 9.09
 2 2 4.29 11.5 9.89
 3 3 3.7 10.69 9.6
 4 4 4.2 12.09 10.9
 5 5 5.7 10.9 10.1
 6 6 6.4 10.9 11.1
 7 7 6.1 10.4 9
 8 8 5.5 10.4 8.2
 9 9 7.29 9.69 8.59
 10 10 7.8 9.19 9.4
 11 11 7 8.7 7.5
 12 12 6.3 9.3 6.8
 13 13 7.89 8.4 7
 14 14 6.3 7.99 7.99
 15 5 8.4 10.79 7.99
 16 6 7.99 11.6 7.19
 17 7 9.69 10.69 8.4
 18 8 10 9.89 8.9
 19 2 10.69 11.6 7.99
 20 1 10.79 11.6 7
 21 3 10.5 12.6 8.3
 22 4 11.7 11.5 8.49
ITEM: TIMESTEP
9
ITEM: NUMBER OF ATOMS
22
ITEM: BOX BOUNDS pp pp pp
2.595 12.595
5.7 15.7
3.95 13.95
ITEM: ATOMS id type xu yu zu
 1 1 4.29 10.9 11.4
 2 2 4.29 10.5 10.4
 3 3 3.99 11.3 9.69
 4 4 3.59 9.69 10.1
 5 5 5.6 10.1 10.1
 6 6 6.2 9.09 10.69
 7 7 6.2 10.5 9
 8 8 5.99 11.4 8.59
 9 9 7.5 10.2 8.4
 10 10 7.99 9.4 8.9
 11 11 7.1 9.4 7.1
 12 12 6.4 9.89 6.5
 13 13 7.99 9.09 6.59
 14 14 6.69 8.4 7.5
 15 5 8.4 11.4 7.99
 16 6 7.89 12.4 7.7
 17 7 9.69 11.2 8.3
 18 8 10 10.3 8.59
 19 2 10.69 12.3 8.1
 20 1 10.6 13 8.8
 21 3 11.6 11.8 8.2
 22 4 10.5 12.6 7
ITEM: TIMESTEP
10
ITEM: NUMBER OF ATOMS
22
ITEM: BOX BOUNDS pp pp pp
2.5 12.5
5.2 15.2
4 14
ITEM: ATOMS id type xu yu zu
 1 1 4.2 12.3 9.09
 2 2 4.1 11.5 9.89
 3 3 3.4 10.79 9.5
 4 4 3.8 11.99 10.79
 5 5 5.5 10.79 10
 6 6 5.8 10.1 11
 7 7 6.3 11 9
 8 8 5.8 11.4 8.2
 9 9 7.4 10.1 8.8
 10 10 7.89 9.89 9.69
 11 11 7 8.8 8.1
 12 12 6.4 8.9 7.19
 13 13 7.8 8.1 7.89
 14 14 6.2 8.3 8.8
 15 5 8.49 10.9 7.89
 16 6 8.1 11.7 7.19
 17 7 9.79 10.6 8.1
 18 8 10.1 10.1 8.9
 19 2 11 11.4 7.6
 20 1 11.5 11.8 8.49
 21 3 11.6 10.69 7.1
 22 4 10.6 12.3 7
ITEM: TIMESTEP
11
ITEM: NUMBER OF ATOMS
22
ITEM: BOX BOUNDS pp pp pp
2.645 12.645
5.745 15.745
3.745 13.745
ITEM: ATOMS id type xu yu zu
 1 1 4.29 11.99 11.5
 2 2 4.7 12.4 10.6
 3 3 5.1 13.39 10.6
 4 4 3.99 12.4 9.79
 5 5 5.9 11.5 10.2
 6 6 6.3 11 11.2
 7 7 6.2 11.2 9
 8 8 5.8 11.6 8.2
 9 9 7.19 10.1 8.59
 10 10 7.7 9.79 9.5
 11 11 6.4 8.9 8.1
 12 12 5.8 9.19 7.19
 13 13 7 8.1 7.7
 14 14 5.8 8.49 8.8
 15 5 8.3 10.6 7.8
 16 6 8.4 11.7 7.29
 17 7 9.4 9.69 7.7
 18 8 9.3 8.8 8.1
 19 2 10.6 10 7
 20 1 11.3 9.6 7.6
 21 3 10.4 9.6 5.99
 22 4 10.79 11.1 6.8
ITEM: TIMESTEP
12
ITEM: NUMBER OF ATOMS
22
ITEM: BOX BOUNDS pp pp pp
2.8 12.8
5.795 15.795
3.85 13.85
ITEM: ATOMS id type xu yu zu
 1 1 7.8 13.29 11.3
 2 2 7 12.7 11.6
 3 3 5.99 13.19 11.4
 4 4 7 12.4 12.7
 5 5 7 11.4 10.9
 6 6 7.4 10.4 11.5
 7 7 6.59 11.3 9.6
 8 8 6.2 12.09 9.09
 9 9 7.1 10.3 8.7
 10 10 7.89 9.89 9.19
 11 11 6.1 9.19 8.7
 12 12 5.2 9.5 8.2
 13 13 6.59 8.3 8.2
 14 14 5.9 8.9 9.79
 15 5 7.6 10.69 7.29
 16 6 6.8 11.2 6.5
 17 7 8.8 10.2 7
 18 8 9.09 9.5 7.6
 19 2 9.3 10.2 5.6
 20 1 8.9 11.1 5
 21 3 10.4 10.4 5.8
 22 4 9.09 9.3 5
ITEM: TIMESTEP
13
ITEM: NUMBER OF ATOMS
22
ITEM: BOX BOUNDS pp pp pp
2.145 12.145
5.64 15.64
3.445 13.445
ITEM: ATOMS id type xu yu zu
 1 1 8.4 12.8 11.8
 2 2 7.4 12.5 11.5
 3 3 6.9 13.39 11
 4 4 6.9 11.99 12.3
 5 5 7.8 11.6 10.4
 6 6 8.8 11.8 9.69
 7 7 6.9 10.6 10.2
 8 8 6.2 10.4 10.9
 9 9 7 9.69 9.09
 10 10 7.89 9.19 9.19
 11 11 5.9 8.7 9.19
 12 12 4.89 9.09 8.8
 13 13 5.9 7.89 8.4
 14 14 5.9 8.3 10.2
 15 5 7.1 10.4 7.7
 16 6 6.5 11.5 7.6
 17 7 7.99 9.89 6.8
 18 8 8.3 9 7
 19 2 8.4 10.5 5.5
 20 1 7.8 11.3 5.2
 21 3 9.4 10.9 5.6
 22 4 8.4 9.79 4.59
ITEM: TIMESTEP
14
ITEM: NUMBER OF ATOMS
22
ITEM: BOX BOUNDS pp pp pp
2.745 12.745
5.65 15.65
3.35 13.35
ITEM: ATOMS id type xu yu zu
 1 1 5.6 13.5 9.69
 2 2 5.6 13 10.6
 3 3 4.7 12.5 10.9
 4 4 6.1 13.5 11.5
 5 5 6.5 11.8 10.4
 6 6 7.5 11.7 11.2
 7 7 6.3 10.79 9.6
 8 8 5.39 10.9 9.09
 9 9 7.29 9.89 9
 10 10 8.1 10 9.69
 11 11 6.69 8.49 8.9
 12 12 5.99 8.3 8.1
 13 13 7.4 7.8 8.59
 14 14 6.2 8.2 9.89
 15 5 7.89 10.4 7.6
 16 6 7.19 11.2 7
 17 7 9 9.79 7.1
 18 8 9.09 8.9 7.6
 19 2 9.79 10.3 6.1
 20 1 10.1 11.4 5.99
 21 3 10.79 9.79 6.2
 22 4 9.3 9.89 5.2
ITEM: TIMESTEP
15
ITEM: NUMBER OF ATOMS
22
ITEM: BOX BOUNDS pp pp pp
2.84 12.84
5.845 15.845
3.3 13.3
ITEM: ATOMS id type xu yu zu
 1 1 6.4 13.7 11.3
 2 2 5.7 13 10.9
 3 3 5.3 13.5 10
 4 4 4.89 12.6 11.4
 5 5 6.59 11.8 10.5
 6 6 7.5 11.6 11.2
 7 7 6.3 11.1 9.4
 8 8 5.5 11.5 9
 9 9 7.19 10 8.9
 10 10 7.99 9.69 9.6
 11 11 6.5 8.7 8.9
 12 12 5.9 8.7 7.89
 13 13 7.29 7.99 8.9
 14 14 5.9 8.49 9.69
 15 5 7.8 10.3 7.5
 16 6 7.4 11.2 6.8
 17 7 8.9 9.6 7.19
 18 8 9.3 8.8 7.8
 19 2 9.79 10.1 6.2
 20 1 9.4 10 5.2
 21 3 9.89 11.2 6.2
 22 4 10.79 9.6 6.3
ITEM: TIMESTEP
16
ITEM: NUMBER OF ATOMS
22
ITEM: BOX BOUNDS pp pp pp
2.5 12.5
5.8 15.8
3.44 13.44
ITEM: ATOMS id type xu yu zu
 1 1 4.5 12.2 10.5
 2 2 5.39 12.5 11.1
 3 3 4.89 12.2 11.99
 4 4 5.7 13.5 11.2
 5 5 6.5 11.6 10.69
 6 6 7.4 11.5 11.4
 7 7 6.4 11 9.6
 8 8 5.6 11.2 9
 9 9 7.5 10.2 8.9
 10 10 8.4 10.2 9.5
 11 11 7.1 8.7 9
 12 12 6.3 8.59 8.3
 13 13 7.8 8.1 8.59
 14 14 6.9 8.4 10
 15 5 7.8 10.6 7.5
 16 6 7.19 11.4 6.8
 17 7 9 10 7
 18 8 9.5 9.3 7.5
 19 2 9.5 10 5.6
 20 1 8.9 10.6 4.89
 21 3 10.5 10.4 5.7
 22 4 9.69 8.9 5.3
ITEM: TIMESTEP
17
ITEM: NUMBER OF ATOMS
22
ITEM: BOX BOUNDS pp pp pp
2.69 12.69
5.795 15.795
3.545 13.545
ITEM: ATOMS id type xu yu zu
 1 1 4.59 12.4 10.6
 2 2 5.6 12.7 11
 3 3 5.6 12.6 12.09
 4 4 5.9 13.6 10.4
 5 5 6.59 11.6 10.6
 6 6 7.5 11.3 11.4
 7 7 6.4 11 9.5
 8 8 5.99 11.5 8.8
 9 9 7.4 10.1 9
 10 10 8.2 10 9.69
 11 11 6.69 8.8 8.9
 12 12 5.8 8.9 8.4
 13 13 7.29 7.99 8.4
 14 14 6.59 8.2 9.89
 15 5 7.89 10.4 7.5
 16 6 7 10.9 6.69
 17 7 9.19 10.3 7.1
 18 8 9.79 9.89 7.8
 19 2 9.69 10.5 5.8
 20 1 9.6 11.6 5.6
 21 3 10.79 10.4 5.6
 22 4 9.09 10 5
ITEM: TIMESTEP
18
ITEM: NUMBER OF ATOMS
22
ITEM: BOX BOUNDS pp pp pp
2.55 12.55
5.9 15.9
3.5 13.5
ITEM: ATOMS id type xu yu zu
 1 1 4.5 12.2 10.4
 2 2 5.5 12.6 10.79
 3 3 5.3 13 11.8
 4 4 5.8 13.6 10.3
 5 5 6.59 11.7 10.69
 6 6 7.19 11.2 11.6
 7 7 6.8 11.4 9.4
 8 8 6.3 11.8 8.59
 9 9 7.4 10.2 8.9
 10 10 8.3 9.89 9.4
 11 11 6.3 9.09 8.8
 12 12 5.9 8.8 9.69
 13 13 5.39 9.4 8.2
 14 14 6.69 8.2 8.3
 15 5 7.99 10.5 7.5
 16 6 7.5 11.4 6.69
 17 7 9.09 9.79 7.19
 18 8 9.3 9.19 7.99
 19 2 9.69 9.5 5.99
 20 1 9.09 9.09 5.2
 21 3 10.1 10.5 5.7
 22 4 10.6 8.9 6.2
ITEM: TIMESTEP
19
ITEM: NUMBER OF ATOMS
22
ITEM: BOX BOUNDS pp pp pp
2.65 12.65
5.695 15.695
3.795 13.795
ITEM: ATOMS id type xu yu zu
 1 1 3.9 11.99 8.9
 2 2 4.59 12.6 9.6
 3 3 3.99 12.9 10.5
 4 4 5 13.5 9.19
 5 5 5.8 11.7 9.79
 6 6 6.3 11.6 10.9
 7 7 6.3 10.9 8.8
 8 8 5.7 10.9 7.89
 9 9 7.4 10 8.9
 10 10 7.8 10.2 9.89
 11 11 6.9 8.49 8.8
 12 12 5.99 8.3 9.4
 13 13 6.59 8.3 7.8
 14 14 7.7 7.89 9.09
 15 5 8.4 10.3 7.8
 16 6 8.1 10.6 6.69
 17 7 9.69 10.4 8.4
 18 8 9.69 10.1 9.3
 19 2 10.9 10.79 7.6
 20 1 11.4 9.89 7.5
 21 3 10.69 11.4 6.8
 22 4 11.4 11.5 8.3
ITEM: TIMESTEP
20
ITEM: NUMBER OF ATOMS
22
ITEM: BOX BOUNDS pp pp pp
2.6 12.6
6 16
3.545 13.545
ITEM: ATOMS id type xu yu zu
 1 1 5.3 13.6 8.49
 2 2 4.7 12.8 8.7
 3 3 4.4 12.4 7.8
 4 4 3.8 13.1 9.19
 5 5 5.6 11.99 9.5
 6 6 5.9 12.3 10.69
 7 7 6.2 11 8.8
 8 8 5.7 10.79 7.99
 9 9 7.4 10.3 9.09
 10 10 7.89 10.79 9.89
 11 11 7 8.9 9.5
 12 12 6.3 8.8 10.3
 13 13 6.59 8.4 8.59
 14 14 7.89 8.4 9.79
 15 5 8.49 10.2 7.99
 16 6 8.2 10.6 6.9
 17 7 9.69 9.69 8.3
 18 8 9.89 9.4 9.3
 19 2 10.79 9.6 7.4
 20 1 10.6 9.69 6.4
 21 3 11.4 10.5 7.6
 22 4 11.4 8.7 7.4
ITEM: TIMESTEP
21
ITEM: NUMBER OF ATOMS
22
ITEM: BOX BOUNDS pp pp pp
2.65 12.65
6.1 16.1
3.9 13.9
ITEM: ATOMS id type xu yu zu
 1 1 4.4 12.8 7.8
 2 2 4.7 12.9 8.9
 3 3 3.9 12.4 9.4
 4 4 4.59 13.9 9.19
 5 5 6.1 12.3 9.09
 6 6 6.9 13 9.5
 7 7 6.2 11 9
 8 8 5.2 10.6 8.9
 9 9 7.4 10.2 9.4
 10 10 7.99 10.9 10
 11 11 6.9 9 10.2
 12 12 6.2 9.3 11
 13 13 6.4 8.4 9.4
 14 14 7.7 8.3 10.6
 15 5 8.2 9.79 8.2
 16 6 7.7 9.89 7
 17 7 9.5 9.69 8.4
 18 8 10 9.79 9.3
 19 2 10.6 9.6 7.4
 20 1 10.6 8.8 6.8
 21 3 10.6 10.6 7
 22 4 11.4 9.5 8.1
ITEM: TIMESTEP
22
ITEM: NUMBER OF ATOMS
22
ITEM: BOX BOUNDS pp pp pp
2.7 12.7
5.75 15.75
3.8 13.8
ITEM: ATOMS id type xu yu zu
 1 1 3.9 11.5 7.6
 2 2 4.5 12.3 7.89
 3 3 3.9 13 8.4
 4 4 4.89 12.7 6.9
 5 5 5.7 12.2 8.8
 6 6 5.99 13.1 9.4
 7 7 6.3 11 8.9
 8 8 5.9 10.3 8.4
 9 9 7.6 10.69 9.5
 10 10 8.2 11.6 9.69
 11 11 7.4 9.79 10.69
 12 12 6.69 10.4 11.3
 13 13 7 8.9 10.5
 14 14 8.3 9.6 11.3
 15 5 8.4 9.79 8.49
 16 6 7.89 8.7 7.99
 17 7 9.6 10.3 8.2
 18 8 10 11.2 8.4
 19 2 10.6 9.5 7.4
 20 1 10.3 9.6 6.3
 21 3 11.5 10.1 7.5
 22 4 10.69 8.4 7.5
ITEM: TIMESTEP
23
ITEM: NUMBER OF ATOMS
22
ITEM: BOX BOUNDS pp pp pp
2.84 12.84
5.7 15.7
3.895 13.895
ITEM: ATOMS id type xu yu zu
 1 1 3.8 10.5 7.5
 2 2 4.29 11.5 7.5
 3 3 3.59 12.4 7.5
 4 4 4.89 11.8 6.59
 5 5 5.2 11.6 8.59
 6 6 4.89 12.3 9.6
 7 7 6.4 10.9 8.4
 8 8 6.4 10.3 7.6
 9 9 7.6 10.79 9.3
 10 10 7.8 11.8 9.6
 11 11 7.19 10 10.5
 12 12 7.1 9 10.1
 13 13 8.1 9.89 11.2
 14 14 6.4 10.3 11.1
 15 5 8.8 10.2 8.49
 16 6 8.49 9.79 7.29
 17 7 10 10.3 9
 18 8 10.1 10.69 9.89
 19 2 11.3 10 8.2
 20 1 12.09 10.4 8.8
 21 3 11.3 9 7.8
 22 4 11.2 10.69 7.29
ITEM: TIMESTEP
24
ITEM: NUMBER OF ATOMS
22
ITEM: BOX BOUNDS pp pp pp
2.7 12.7
5.295 15.295
3.445 13.445
ITEM: ATOMS id type xu yu zu
 1 1 5.6 12.5 6.1
 2 2 5 11.89 6.9
 3 3 4.7 11 6.4
 4 4 4.2 12.4 7.29
 5 5 5.9 11.6 7.99
 6 6 6.8 12.5 8.2
 7 7 5.9 10.4 8.59
 8 8 5.1 9.79 8.4
 9 9 7 9.89 9.5
 10 10 6.8 10.3 10.5
 11 11 6.9 8.3 9.6
 12 12 6.69 7.89 8.59
 13 13 7.7 7.89 10.2
 14 14 5.9 8.3 10.1
 15 5 8.4 10.2 9
 16 6 8.8 9.89 7.99
 17 7 9.19 11 9.79
 18 8 8.9 11.1 10.79
 19 2 10.3 11.8 9.4
 20 1 10.4 12.7 10
 21 3 11.2 11.3 9.5
 22 4 10.1 12.09 8.3
ITEM: TIMESTEP
25
ITEM: NUMBER OF ATOMS
22
ITEM: BOX BOUNDS pp pp pp
2.55 12.55
5.1 15.1
3.795 13.795
ITEM: ATOMS id type xu yu zu
 1 1 4.4 10.6 6.3
 2 2 4.89 11.5 6.4
 3 3 4.2 12.3 6.5
 4 4 5.5 11.8 5.5
 5 5 5.9 11.5 7.6
 6 6 6.2 12.4 8.3
 7 7 6.3 10.3 7.8
 8 8 5.8 9.5 7.29
 9 9 7.19 9.69 8.9
 10 10 6.59 9.79 9.79
 11 11 7.4 8.3 8.49
 12 12 8.1 8.3 7.7
 13 13 7.89 7.7 9.3
 14 14 6.4 7.89 8.3
 15 5 8.49 10.6 9.19
 16 6 9.09 11.3 8.4
 17 7 8.8 10.69 10.5
 18 8 8.3 10 11.1
 19 2 10 11.4 11.1
 20 1 9.89 12.5 11
 21 3 10.2 11.1 12.09
 22 4 10.9 11.1 10.6
ITEM: TIMESTEP
26
ITEM: NUMBER OF ATOMS
22
ITEM: BOX BOUNDS pp pp pp
2.25 12.25
5.2 15.2
3.8 13.8
ITEM: ATOMS id type xu yu zu
 1 1 4.5 11.1 6.2
 2 2 5 11.89 6.8
 3 3 4.2 12.6 7.1
 4 4 5.6 12.6 6.1
 5 5 5.8 11.4 7.99
 6 6 6.1 11.99 8.9
 7 7 6.4 10.2 7.8
 8 8 6.3 9.69 6.9
 9 9 7.19 9.6 8.8
 10 10 6.69 9.4 9.79
 11 11 7.8 8.3 8.4
 12 12 8.59 8.4 7.6
 13 13 8.3 7.8 9.19
 14 14 7 7.6 7.99
 15 5 8.49 10.5 9.09
 16 6 9.4 10.69 8.1
 17 7 8.7 11 10.3
 18 8 7.99 10.69 11
 19 2 9.6 12.09 10.6
 20 1 10.3 11.89 11.5
 21 3 10.2 12.5 9.79
 22 4 9 12.8 11.1
ITEM: TIMESTEP
27
ITEM: NUMBER OF ATOMS
22
ITEM: BOX BOUNDS pp pp pp
2.49 12.49
5.75 15.75
3.695 13.695
ITEM: ATOMS id type xu yu zu
 1 1 5.99 9.69 5.5
 2 2 5.3 10.4 5.99
 3 3 4.29 10 5.99
 4 4 5.39 11.3 5.5
 5 5 5.8 10.79 7.29
 6 6 5.3 11.8 7.99
 7 7 6.69 10 7.89
 8 8 7.1 9.19 7.29
 9 9 7.29 10.1 9.19
 10 10 6.5 10.4 9.89
 11 11 7.7 8.49 9.6
 12 12 8.59 8.2 9
 13 13 8.1 8.59 10.6
 14 14 7 7.8 9.69
 15 5 8.49 11 9.3
 16 6 9.3 10.9 8.4
 17 7 8.49 11.8 10.3
 18 8 7.7 11.8 10.9
 19 2 9.69 12.6 10.79
 20 1 9.6 13.7 10.5
 21 3 9.79 12.6 11.89
 22 4 10.69 12.4 10.4
ITEM: TIMESTEP
28
ITEM: NUMBER OF ATOMS
22
ITEM: BOX BOUNDS pp pp pp
2.45 12.45
6.25 16.25
3.395 13.395
ITEM: ATOMS id type xu yu zu
 1 1 4.4 9 6.59
 2 2 5.1 9.69 6.2
 3 3 4.59 10.6 5.8
 4 4 5.8 9.19 5.39
 5 5 5.9 10.4 7.4
 6 6 5.7 11.6 7.5
 7 7 6.69 9.79 8.3
 8 8 7 8.8 7.99
 9 9 7.19 10.2 9.5
 10 10 6.5 10.79 10.1
 11 11 7.5 9.09 10.4
 12 12 8.3 8.49 9.89
 13 13 7.89 9.4 11.4
 14 14 6.69 8.4 10.5
 15 5 8.49 11.1 9.3
 16 6 9.4 10.79 8.49
 17 7 8.59 12.2 10
 18 8 7.8 12.5 10.6
 19 2 9.69 13.1 10
 20 1 9.4 14.1 9.5
 21 3 10.1 13.29 11
 22 4 10.5 12.5 9.5
ITEM: TIMESTEP
29
ITEM: NUMBER OF ATOMS
22
ITEM: BOX BOUNDS pp pp pp
2.095 12.095
5.5 15.5
3.75 13.75
ITEM: ATOMS id type xu yu zu
 1 1 3.99 11.4 6.69
 2 2 4.89 10.79 6.4
 3 3 5.5 11.3 5.7
 4 4 4.7 9.69 6.2
 5 5 5.9 11 7.7
 6 6 5.99 12.09 8.2
 7 7 6.5 9.89 8.1
 8 8 6.3 9.09 7.5
 9 9 7.5 9.6 9.09
 10 10 7.1 9.69 10.1
 11 11 8.2 8.2 8.9
 12 12 8.59 8.1 7.89
 13 13 8.9 7.99 9.6
 14 14 7.4 7.5 8.9
 15 5 8.59 10.9 9.19
 16 6 9.19 11.3 8.3
 17 7 8.49 11.5 10.4
 18 8 8.1 11 11.2
 19 2 9.09 12.7 10.79
 20 1 8.8 13 11.8
 21 3 10.2 12.5 10.79
 22 4 8.7 13.5 10.1
ITEM: TIMESTEP
30
ITEM: NUMBER OF ATOMS
22
ITEM: BOX BOUNDS pp pp pp
2.64 12.64
5.845 15.845
3.4 13.4
ITEM: ATOMS id type xu yu zu
 1 1 5.39 10.6 5
 2 2 6.2 10.2 5.6
 3 3 7.19 10.3 5.1
 4 4 5.99 9.09 5.6
 5 5 6.3 10.6 7.1
 6 6 5.7 11.5 7.6
 7 7 7.1 9.79 7.7
 8 8 7.5 9.09 7.19
 9 9 7.19 10 9.19
 10 10 6.3 10.5 9.6
 11 11 7.5 8.7 10
 12 12 8.49 8.4 9.89
 13 13 7.29 9 11.1
 14 14 6.8 7.89 9.79
 15 5 8.3 11.1 9.5
 16 6 9.3 11.3 8.8
 17 7 8.1 11.8 10.6
 18 8 7.29 11.5 11.2
 19 2 8.9 13 10.79
 20 1 9.89 12.6 11
 21 3 8.9 13.8 10.1
 22 4 8.7 13.39 11.8
ITEM: TIMESTEP
31
ITEM: NUMBER OF ATOMS
22
ITEM: BOX BOUNDS pp pp pp
2.9 12.9
5.245 15.245
3.8 13.8
ITEM: ATOMS id type xu yu zu
 1 1 6.9 10.5 5.2
 2 2 6.3 11.3 5.7
 3 3 5.3 11.2 5.3
 4 4 6.59 12.2 5.2
 5 5 6.3 11.3 7.1
 6 6 6.2 12.3 7.8
 7 7 6.59 10.1 7.7
 8 8 6.5 9.4 7
 9 9 7 9.89 9.09
 10 10 6.2 10.4 9.69
 11 11 7.19 8.49 9.5
 12 12 7.99 8.1 8.9
 13 13 7.5 8.49 10.5
 14 14 6.2 7.99 9.4
 15 5 8.2 10.69 9.5
 16 6 8.9 11.3 8.59
 17 7 8.49 10.9 10.69
 18 8 7.7 10.69 11.3
 19 2 9.6 11.5 11.3
 20 1 10.5 11 11.1
 21 3 9.79 12.5 10.79
 22 4 9.5 11.8 12.4
ITEM: TIMESTEP
32
ITEM: NUMBER OF ATOMS
22
ITEM: BOX BOUNDS pp pp pp
2.745 12.745
5.65 15.65
3.5 13.5
ITEM: ATOMS id type xu yu zu
 1 1 5.6 12.9 5.9
 2 2 5.39 11.89 6.2
 3 3 5.8 11.2 5.5
 4 4 4.29 11.8 6.3
 5 5 5.9 11.89 7.6
 6 6 5.5 12.8 8.3
 7 7 6.69 10.79 7.89
 8 8 6.8 10.3 7
 9 9 7.19 10.5 9.19
 10 10 6.9 11.1 10
 11 11 6.5 9.09 9.6
 12 12 6.9 8.4 8.9
 13 13 6.9 8.9 10.6
 14 14 5.5 9.3 9.69
 15 5 8.59 10.5 9.19
 16 6 9.3 11.2 8.49
 17 7 9.19 9.69 10.2
 18 8 8.59 9.3 10.79
 19 2 10.6 9.6 10.4
 20 1 10.79 9.79 11.5
 21 3 10.9 8.49 10.5
 22 4 11.2 10.2 9.79
ITEM: TIMESTEP
33
ITEM: NUMBER OF ATOMS
22
ITEM: BOX BOUNDS pp pp pp
2.795 12.795
5.945 15.945
3.5 13.5
ITEM: ATOMS id type xu yu zu
 1 1 7.29 12.8 5.8
 2 2 6.4 13 6.4
 3 3 5.5 12.4 6.2
 4 4 6.1 14 6.5
 5 5 6.69 12.5 7.89
 6 6 7.29 13.19 8.7
 7 7 6.2 11.4 8.2
 8 8 5.9 11.1 7.29
 9 9 6.8 10.5 9.19
 10 10 6.9 11.3 10
 11 11 5.8 9.5 9.6
 12 12 5.7 8.59 9.09
 13 13 5.9 9.19 10.6
 14 14 4.8 10 9.5
 15 5 8.2 9.89 9
 16 6 8.7 9.69 7.8
 17 7 8.8 9.5 10.1
 18 8 8.49 9.6 11
 19 2 10.1 8.8 10.2
 20 1 10.79 9.5 9.6
 21 3 10.6 8.8 11.2
 22 4 10.1 7.89 9.69
ITEM: TIMESTEP
34
ITEM: NUMBER OF ATOMS
22
ITEM: BOX BOUNDS pp pp pp
2.8 12.8
5.845 15.845
3.85 13.85
ITEM: ATOMS id type xu yu zu
 1 1 6.5 13.5 6.5
 2 2 6.69 13.9 7.5
 3 3 5.8 14.39 7.89
 4 4 7.4 14.69 7.5
 5 5 7.29 12.8 8.2
 6 6 8.49 12.6 8.2
 7 7 6.5 11.8 8.9
 8 8 5.5 11.99 8.7
 9 9 7 10.69 9.69
 10 10 7.6 11.2 10.4
 11 11 5.8 10.1 10.3
 12 12 5.1 10 9.5
 13 13 6.1 9.09 10.5
 14 14 5.3 10.6 11.2
 15 5 7.7 9.69 8.8
 16 6 7.5 9.5 7.6
 17 7 8.7 9 9.4
 18 8 9 9.09 10.4
 19 2 9.5 7.89 8.7
 20 1 9.69 8.3 7.7
 21 3 10.5 7.8 9.19
 22 4 9 7 8.8
ITEM: TIMESTEP
35
ITEM: NUMBER OF ATOMS
22
ITEM: BOX BOUNDS pp pp pp
2.345 12.345
5.64 15.64
3.55 13.55
ITEM: ATOMS id type xu yu zu
 1 1 7.7 14.69 7.1
 2 2 7 13.9 7.1
 3 3 6.5 13.5 6.2
 4 4 6.2 14.2 7.7
 5 5 7.7 12.8 7.89
 6 6 8.9 12.7 7.99
 7 7 6.8 11.89 8.4
 8 8 5.9 12.09 8.1
 9 9 7.1 10.9 9.5
 10 10 7.7 11.4 10.3
 11 11 5.7 10.6 9.89
 12 12 5.2 10 9.19
 13 13 5.7 9.89 10.79
 14 14 5 11.5 10.1
 15 5 7.7 9.6 9
 16 6 7.8 9.4 7.8
 17 7 8.1 8.7 9.89
 18 8 7.99 9.09 10.9
 19 2 8.59 7.4 9.6
 20 1 9.69 7.29 9.5
 21 3 8.4 6.59 10.4
 22 4 8.3 7.19 8.59
ITEM: TIMESTEP
36
ITEM: NUMBER OF ATOMS
22
ITEM: BOX BOUNDS pp pp pp
2.695 12.695
5.75 15.75
3.5 13.5
ITEM: ATOMS id type xu yu zu
 1 1 6.1 12.4 5.9
 2 2 6.9 13 6.3
 3 3 6.59 14 6.5
 4 4 7.6 13 5.5
 5 5 7.5 12.3 7.5
 6 6 8.7 12.2 7.5
 7 7 6.69 11.89 8.4
 8 8 5.7 11.89 8.2
 9 9 7 11.2 9.6
 10 10 7.8 11.7 10.2
 11 11 5.7 11.1 10.5
 12 12 4.89 10.6 10
 13 13 5.9 10.69 11.5
 14 14 5.3 12.09 10.6
 15 5 7.6 9.79 9.19
 16 6 7.1 9 8.4
 17 7 8.7 9.4 9.89
 18 8 9.09 10.2 10.4
 19 2 9.5 8.2 9.79
 20 1 9.4 7.7 10.79
 21 3 9 7.5 9.09
 22 4 10.5 8.3 9.69
ITEM: TIMESTEP
37
ITEM: NUMBER OF ATOMS
22
ITEM: BOX BOUNDS pp pp pp
2.9 12.9
5.4 15.4
3.35 13.35
ITEM: ATOMS id type xu yu zu
 1 1 6.1 11.5 5
 2 2 6.3 12.2 5.8
 3 3 5.3 12.5 6.2
 4 4 6.9 13.1 5.6
 5 5 7.1 11.7 7
 6 6 8.3 11.5 6.9
 7 7 6.5 11.8 8.2
 8 8 5.6 12.09 8.3
 9 9 7.29 11.4 9.5
 10 10 8.2 11.99 9.5
 11 11 6.4 11.99 10.69
 12 12 5.39 11.6 10.79
 13 13 6.9 11.89 11.7
 14 14 6.4 13.1 10.4
 15 5 7.7 10 9.79
 16 6 7.4 9.6 11
 17 7 8.59 9.5 9
 18 8 8.8 10.1 8.2
 19 2 9.4 8.3 9.09
 20 1 9.4 7.7 8.2
 21 3 10.5 8.49 9.09
 22 4 9.19 7.8 10.1
ITEM: TIMESTEP
38
ITEM: NUMBER OF ATOMS
22
ITEM: BOX BOUNDS pp pp pp
2.395 12.395
5.5 15.5
3.095 13.095
ITEM: ATOMS id type xu yu zu
 1 1 7.6 11.1 4.89
 2 2 6.8 11.2 5.6
 3 3 6.2 10.3 5.6
 4 4 6.3 12.09 5.39
 5 5 7.6 11.5 6.9
 6 6 8.7 11.99 6.9
 7 7 6.69 11.5 7.99
 8 8 5.8 11 7.99
 9 9 7.29 11.6 9.4
 10 10 8.3 12.09 9.4
 11 11 6.4 12.5 10.3
 12 12 5.39 11.99 10.4
 13 13 6.69 12.8 11.3
 14 14 6.2 13.5 9.79
 15 5 7.6 10.3 10
 16 6 6.9 10 11
 17 7 8.49 9.5 9.4
 18 8 9 10 8.7
 19 2 8.7 7.99 9.6
 20 1 8.8 7.8 10.69
 21 3 7.8 7.5 9.19
 22 4 9.4 7.6 8.9
ITEM: TIMESTEP
39
ITEM: NUMBER OF ATOMS
22
ITEM: BOX BOUNDS pp pp pp
2.85 12.85
5.2 15.2
3.25 13.25
ITEM: ATOMS id type xu yu zu
 1 1 5.8 11.1 5.9
 2 2 6.8 11.4 5.7
 3 3 6.8 12.3 5.1
 4 4 7.5 10.69 5.39
 5 5 7.29 11.89 7.1
 6 6 8.4 12.4 7.29
 7 7 6.5 11.5 8.1
 8 8 5.6 11.1 7.99
 9 9 7 11.4 9.5
 10 10 7.8 12.09 9.5
 11 11 5.9 11.8 10.4
 12 12 5.2 11 10.5
 13 13 6.1 11.99 11.4
 14 14 5.3 12.6 10
 15 5 7.7 10.1 9.89
 16 6 7.1 9.3 10.79
 17 7 8.8 9.79 9.19
 18 8 9.09 10.6 8.59
 19 2 9.5 8.49 9.3
 20 1 9.09 7.8 10.1
 21 3 9.6 7.89 8.4
 22 4 10.5 8.8 9.6
ITEM: TIMESTEP
40
ITEM: NUMBER OF ATOMS
22
ITEM: BOX BOUNDS pp pp pp
2.29 12.29
5.095 15.095
3.15 13.15
ITEM: ATOMS id type xu yu zu
 1 1 7.29 11.2 5.2
 2 2 7.6 12.09 5.7
 3 3 6.8 12.9 5.6
 4 4 8.59 12.4 5.39
 5 5 7.7 11.99 7.19
 6 6 8.8 12.3 7.7
 7 7 6.8 11.5 7.99
 8 8 5.99 11 7.6
 9 9 6.9 11.3 9.4
 10 10 7.7 11.99 9.79
 11 11 5.6 11.89 10
 12 12 4.89 11.2 9.6
 13 13 5.7 11.89 11.1
 14 14 5.5 12.9 9.69
 15 5 7.29 9.89 9.89
 16 6 7.1 9.4 11
 17 7 8.2 9.3 9.09
 18 8 8.3 9.79 8.2
 19 2 9 8.1 9.3
 20 1 9.69 7.99 8.59
 21 3 9.4 8.1 10.3
 22 4 8.3 7.29 9.09
ITEM: TIMESTEP
41
ITEM: NUMBER OF ATOMS
22
ITEM: BOX BOUNDS pp pp pp
2.35 12.35
5.045 15.045
2.995 12.995
ITEM: ATOMS id type xu yu zu
 1 1 5.9 12.7 5.6
 2 2 6.8 12.09 5.6
 3 3 7.4 12.5 4.89
 4 4 6.5 11.1 5.39
 5 5 7.4 12.3 7
 6 6 7.99 13.29 7.29
 7 7 7.1 11.3 7.99
 8 8 6.4 10.69 7.7
 9 9 7.8 11.3 9.3
 10 10 8.8 11.5 9.19
 11 11 7 12.09 10.3
 12 12 6.1 11.7 10.79
 13 13 7.7 12.4 11.1
 14 14 6.69 13.1 9.79
 15 5 7.7 9.79 9.89
 16 6 7.7 9.6 11.1
 17 7 7.7 8.7 9.09
 18 8 7.8 9 8.1
 19 2 7.8 7.29 9.4
 20 1 8.4 7.29 10.3
 21 3 6.8 6.8 9.5
 22 4 8.4 6.9 8.59
ITEM: TIMESTEP
42
ITEM: NUMBER OF ATOMS
22
ITEM: BOX BOUNDS pp pp pp
2 12
5.445 15.445
3.445 13.445
ITEM: ATOMS id type xu yu zu
 1 1 8.9 13.29 6.2
 2 2 8.49 12.3 5.99
 3 3 9.09 11.7 5.39
 4 4 7.5 12.4 5.7
 5 5 8.49 11.7 7.4
 6 6 9.3 10.79 7.6
 7 7 7.5 12.2 8.3
 8 8 6.9 12.9 7.99
 9 9 7.4 11.6 9.69
 10 10 8.4 11.89 10.1
 11 11 6.3 12.3 10.5
 12 12 5.3 12.09 10.1
 13 13 6.3 12.09 11.5
 14 14 6.4 13.39 10.5
 15 5 7.29 10.1 9.6
 16 6 8.3 9.4 9.89
 17 7 6.1 9.6 9.09
 18 8 5.5 10.3 8.9
 19 2 5.8 8.1 9.09
 20 1 6.4 7.5 9.79
 21 3 4.7 8.1 9.5
 22 4 5.9 7.6 8.2
ITEM: TIMESTEP
43
ITEM: NUMBER OF ATOMS
22
ITEM: BOX BOUNDS pp pp pp
1.745 11.745
5.995 15.995
3.75 13.75
ITEM: ATOMS id type xu yu zu
 1 1 7.99 14.1 6.9
 2 2 7.7 13.1 6.69
 3 3 8.1 12.7 5.7
 4 4 6.59 12.9 6.59
 5 5 8.3 12.09 7.7
 6 6 9.09 11.3 7.29
 7 7 7.7 12.2 8.9
 8 8 7.29 13 9.09
 9 9 7.99 11.1 9.79
 10 10 9.09 10.9 9.79
 11 11 7.5 11.4 11.1
 12 12 6.5 11.3 11.3
 13 13 8.1 10.79 11.8
 14 14 7.7 12.5 11.2
 15 5 7.4 9.79 9.19
 16 6 8.1 8.8 9.09
 17 7 6.1 9.69 9
 18 8 5.6 10.6 9.3
 19 2 5.3 8.7 8.4
 20 1 4.4 9.19 7.99
 21 3 5.7 8.4 7.5
 22 4 5 7.89 9.09
ITEM: TIMESTEP
44
ITEM: NUMBER OF ATOMS
22
ITEM: BOX BOUNDS pp pp pp
2.095 12.095
6.395 16.395
4.145 14.145
ITEM: ATOMS id type xu yu zu
 1 1 9.19 13.39 6.5
 2 2 8.49 13.5 7.29
 3 3 7.5 13.7 6.9
 4 4 8.8 14.3 7.99
 5 5 8.49 12.2 8.1
 6 6 9.09 11.2 7.6
 7 7 7.99 12.09 9.4
 8 8 7.4 13 9.6
 9 9 7.7 10.79 10
 10 10 8.7 10.4 10.4
 11 11 6.9 11.1 11.3
 12 12 5.9 11.5 11
 13 13 6.8 10.1 11.8
 14 14 7.5 11.7 11.89
 15 5 7.1 9.69 9.09
 16 6 7.5 8.49 9.19
 17 7 6.2 10 8.3
 18 8 5.9 11 8.3
 19 2 5.6 9.19 7.29
 20 1 5.1 9.6 6.4
 21 3 6.4 8.49 6.8
 22 4 5 8.59 7.89
ITEM: TIMESTEP
45
ITEM: NUMBER OF ATOMS
22
ITEM: BOX BOUNDS pp pp pp
1.75 11.75
6.295 16.295
4.1 14.1
ITEM: ATOMS id type xu yu zu
 1 1 9.19 14.39 8.2
 2 2 8.7 13.6 7.6
 3 3 9.09 13.5 6.5
 4 4 7.7 13.9 7.5
 5 5 8.7 12.3 8.2
 6 6 9.6 11.5 7.89
 7 7 7.8 12.09 9.19
 8 8 7.19 12.9 9.4
 9 9 7.7 10.69 9.79
 10 10 8.7 10.2 10
 11 11 7.1 10.9 11.1
 12 12 6.2 11.5 10.9
 13 13 6.8 10 11.7
 14 14 7.8 11.5 11.7
 15 5 7 9.6 8.9
 16 6 7.6 8.59 8.49
 17 7 5.8 9.79 8.49
 18 8 5.39 10.69 8.8
 19 2 4.8 8.9 7.99
 20 1 4.59 8.3 8.9
 21 3 3.9 9.3 7.6
 22 4 5.2 8.2 7.29
ITEM: TIMESTEP
46
ITEM: NUMBER OF ATOMS
22
ITEM: BOX BOUNDS pp pp pp
2.045 12.045
6.35 16.35
3.595 13.595
ITEM: ATOMS id type xu yu zu
 1 1 10 14.3 9.5
 2 2 9.09 13.8 9.19
 3 3 9 14.1 8.1
 4 4 8.2 14.1 9.69
 5 5 9.19 12.3 9.19
 6 6 10.1 11.7 9.79
 7 7 8.1 11.7 8.7
 8 8 7.5 12.3 8.2
 9 9 7.6 10.4 9.19
 10 10 8.49 9.79 9.5
 11 11 6.9 10.6 10.6
 12 12 5.99 11.3 10.5
 13 13 6.5 9.69 11
 14 14 7.6 11.1 11.2
 15 5 6.69 9.6 8.2
 16 6 7.1 8.4 8.1
 17 7 5.6 10.1 7.8
 18 8 5.5 11 8.1
 19 2 4.8 9.5 6.8
 20 1 4.2 8.7 7.29
 21 3 3.99 10.1 6.4
 22 4 5.3 8.9 5.99
ITEM: TIMESTEP
47
ITEM: NUMBER OF ATOMS
22
ITEM: BOX BOUNDS pp pp pp
2.1 12.1
6.25 16.25
3.795 13.795
ITEM: ATOMS id type xu yu zu
 1 1 10.4 13.9 8.9
 2 2 9.4 13.6 9.3
 3 3 8.7 14.1 8.7
 4 4 9.3 14 10.3
 5 5 9.19 12.09 9.3
 6 6 10.1 11.3 9.4
 7 7 7.89 11.8 9.19
 8 8 7.19 12.5 9.3
 9 9 7.5 10.4 9.5
 10 10 8.2 9.69 9.79
 11 11 6.5 10.5 10.6
 12 12 5.8 11.4 10.3
 13 13 5.9 9.6 10.79
 14 14 7 10.79 11.6
 15 5 6.9 9.79 8.2
 16 6 7.5 9.09 7.4
 17 7 5.5 9.89 7.89
 18 8 5 10.6 8.49
 19 2 4.8 9.3 6.8
 20 1 5.2 8.4 6.5
 21 3 3.8 9.19 7.19
 22 4 4.8 10 5.99
ITEM: TIMESTEP
48
ITEM: NUMBER OF ATOMS
22
ITEM: BOX BOUNDS pp pp pp
1.995 11.995
6.245 16.245
3.85 13.85
ITEM: ATOMS id type xu yu zu
 1 1 10 13.8 9
 2 2 9 13.7 9.19
 3 3 8.3 14.39 8.59
 4 4 8.7 13.7 10.2
 5 5 8.59 12.3 8.7
 6 6 8.2 12.2 7.5
 7 7 8.7 11.3 9.5
 8 8 8.9 11.6 10.5
 9 9 8.2 10 9.19
 10 10 8.9 9.6 8.4
 11 11 8.4 9.19 10.5
 12 12 7.7 9.4 11.3
 13 13 8.49 8.1 10.3
 14 14 9.3 9.5 10.9
 15 5 6.69 9.69 8.8
 16 6 6.3 8.49 8.8
 17 7 5.99 10.6 8.2
 18 8 6.5 11.5 8.2
 19 2 5 10.5 7.19
 20 1 5.2 9.79 6.4
 21 3 3.99 10.2 7.7
 22 4 4.8 11.5 6.8
ITEM: TIMESTEP
49
ITEM: NUMBER OF ATOMS
22
ITEM: BOX BOUNDS pp pp pp
1.845 11.845
6.095 16.095
4 14
ITEM: ATOMS id type xu yu zu
 1 1 8.3 14.3 9.09
 2 2 9.19 13.6 9.19
 3 3 9.5 13.5 10.2
 4 4 9.89 14 8.49
 5 5 8.8 12.3 8.7
 6 6 8.59 12.09 7.5
 7 7 8.49 11.2 9.6
 8 8 8.59 11.5 10.5
 9 9 8.1 9.89 9.09
 10 10 9 9.6 8.49
 11 11 8.2 8.9 10.3
 12 12 7.29 8.8 10.9
 13 13 8.3 7.89 9.89
 14 14 9.09 9.09 10.9
 15 5 6.8 9.79 8.3
 16 6 6.69 9.6 7.1
 17 7 5.7 10.3 9
 18 8 5.9 10.6 10
 19 2 4.29 10.3 8.49
 20 1 4.29 10.6 7.5
 21 3 3.9 9.3 8.59
 22 4 3.8 11.1 9
ITEM: TIMESTEP
50
ITEM: NUMBER OF ATOMS
22
ITEM: BOX BOUNDS pp pp pp
1.84 11.84
6.395 16.395
3.795 13.795
ITEM: ATOMS id type xu yu zu
 1 1 7.99 14.59 9.19
 2 2 7.6 13.9 9.79
 3 3 6.59 13.9 10
 4 4 8.1 13.9 10.79
 5 5 7.99 12.5 9.3
 6 6 8.59 12.4 8.2
 7 7 7.8 11.3 9.89
 8 8 7.19 11.5 10.69
 9 9 8.1 10.1 9.4
 10 10 9.09 10 9
 11 11 7.99 9.09 10.6
 12 12 6.9 8.7 10.5
 13 13 8.59 8.2 10.4
 14 14 7.99 9.5 11.6
 15 5 7.4 9.6 8.2
 16 6 7.89 8.9 7.29
 17 7 6.2 10.1 7.99
 18 8 5.8 10.69 8.8
 19 2 5.39 10.2 6.8
 20 1 5 11.2 6.69
 21 3 6.1 10 5.99
 22 4 4.59 9.5 6.9
ITEM: TIMESTEP
51
ITEM: NUMBER OF ATOMS
22
ITEM: BOX BOUNDS pp pp pp
2.35 12.35
5.75 15.75
3.545 13.545
ITEM: ATOMS id type xu yu zu
 1 1 6.2 13.8 10.3
 2 2 6.59 13 11
 3 3 5.7 12.5 11.2
 4 4 6.9 13.39 11.89
 5 5 7.6 12.2 10.2
 6 6 8.49 12.8 9.69
 7 7 7.29 11 10.1
 8 8 6.4 10.79 10.3
 9 9 7.89 9.89 9.3
 10 10 9 9.89 9.6
 11 11 7.4 8.49 9.69
 12 12 6.3 8.3 9.69
 13 13 7.89 7.7 9.09
 14 14 7.6 8.4 10.79
 15 5 7.89 10.1 7.7
 16 6 8.7 10.79 7.19
 17 7 6.8 9.79 7.1
 18 8 5.99 9.3 7.6
 19 2 6.5 9.89 5.6
 20 1 5.9 9.09 5.2
 21 3 5.8 10.79 5.39
 22 4 7.4 10.1 5.2
ITEM: TIMESTEP
52
ITEM: NUMBER OF ATOMS
22
ITEM: BOX BOUNDS pp pp pp
2 12
5.945 15.945
3.85 13.85
ITEM: ATOMS id type xu yu zu
 1 1 6.8 13.9 11.2
 2 2 7 12.8 11.3
 3 3 5.99 12.2 11.5
 4 4 7.6 12.7 12.2
 5 5 7.7 12.2 10.2
 6 6 8.49 12.7 9.5
 7 7 7.5 10.9 10.1
 8 8 6.9 10.5 10.69
 9 9 8.3 10 9.09
 10 10 9.3 10.3 9.09
 11 11 8.1 8.7 9.5
 12 12 7 8.49 9.79
 13 13 8.1 7.99 8.7
 14 14 8.8 8.3 10.3
 15 5 7.6 10.1 7.6
 16 6 8.4 10 6.69
 17 7 6.3 10.4 7.5
 18 8 5.7 10.4 8.3
 19 2 5.8 10.4 5.99
 20 1 6.3 11.2 5.5
 21 3 5.8 9.4 5.7
 22 4 4.7 10.6 5.99
ITEM: TIMESTEP
53
ITEM: NUMBER OF ATOMS
22
ITEM: BOX BOUNDS pp pp pp
2.395 12.395
5.795 15.795
3.595 13.595
ITEM: ATOMS id type xu yu zu
 1 1 5.9 13 10.79
 2 2 6.8 12.7 11.3
 3 3 6.59 11.99 12.09
 4 4 7.29 13.6 11.7
 5 5 7.7 12.09 10.3
 6 6 8.59 12.7 9.79
 7 7 7.4 10.79 10.1
 8 8 6.8 10.3 10.79
 9 9 8.1 10.1 9.09
 10 10 9.19 10.3 9.09
 11 11 7.99 8.49 9.3
 12 12 6.9 8.2 9.5
 13 13 8.49 7.99 8.59
 14 14 8.4 8.4 10.3
 15 5 7.7 10.4 7.6
 16 6 7.99 11.4 7
 17 7 6.69 9.6 7.1
 18 8 6.5 8.8 7.7
 19 2 6.2 9.79 5.8
 20 1 5.7 10.79 5.7
 21 3 7.1 9.89 5.1
 22 4 5.6 9 5.5
ITEM: TIMESTEP
54
ITEM: NUMBER OF ATOMS
22
ITEM: BOX BOUNDS pp pp pp